nqpoint: 255    
npath: 5      
natom: 12     
reciprocal_lattice:
- [   0.01669575,  -0.02869529,  -0.16307590 ] # a*
- [   0.13774214,   0.06824653,   0.11531580 ] # b*
- [   0.10958756,  -0.09279012,   0.08413643 ] # c*
phonon:
- q-position: [    0.0000000,    0.0000000,    0.0000000 ]
  distance:    0.0000000
  band:
  - # 1
    frequency:   -1.4102660581
  - # 2
    frequency:   -1.4101625929
  - # 3
    frequency:   -1.4100144881
  - # 4
    frequency:    2.7257177422
  - # 5
    frequency:    2.7263085942
  - # 6
    frequency:    2.9897153599
  - # 7
    frequency:    2.9901604673
  - # 8
    frequency:    2.9907501801
  - # 9
    frequency:    4.8028674813
  - # 10
    frequency:    4.8031520722
  - # 11
    frequency:    4.8033765405
  - # 12
    frequency:    5.2864363048
  - # 13
    frequency:    5.2867355201
  - # 14
    frequency:    5.2874223398
  - # 15
    frequency:    5.9129285273
  - # 16
    frequency:    5.9137885982
  - # 17
    frequency:    6.5628001854
  - # 18
    frequency:    6.5633153988
  - # 19
    frequency:    6.5637976602
  - # 20
    frequency:    6.7672531037
  - # 21
    frequency:    6.7676163116
  - # 22
    frequency:    6.7681653665
  - # 23
    frequency:    6.7785943308
  - # 24
    frequency:    7.2905464385
  - # 25
    frequency:    7.2910012025
  - # 26
    frequency:    7.2918313686
  - # 27
    frequency:    8.6088165493
  - # 28
    frequency:    8.6100209120
  - # 29
    frequency:    8.9700980059
  - # 30
    frequency:    8.9703887734
  - # 31
    frequency:    8.9706375060
  - # 32
    frequency:    9.1849808625
  - # 33
    frequency:    9.1853073826
  - # 34
    frequency:    9.1855499948
  - # 35
    frequency:    9.4598816245
  - # 36
    frequency:    9.4746548845

- q-position: [    0.0000000,    0.0100000,    0.0100000 ]
  distance:    0.0031868
  band:
  - # 1
    frequency:   -1.4058567181
  - # 2
    frequency:   -1.4042647204
  - # 3
    frequency:   -1.3996985116
  - # 4
    frequency:    2.7272433193
  - # 5
    frequency:    2.7280148506
  - # 6
    frequency:    2.9862924724
  - # 7
    frequency:    2.9873747268
  - # 8
    frequency:    2.9894109473
  - # 9
    frequency:    4.8010850595
  - # 10
    frequency:    4.8013931640
  - # 11
    frequency:    4.8038722139
  - # 12
    frequency:    5.2878718687
  - # 13
    frequency:    5.2891204698
  - # 14
    frequency:    5.2899782404
  - # 15
    frequency:    5.9129907232
  - # 16
    frequency:    5.9162436918
  - # 17
    frequency:    6.5635951045
  - # 18
    frequency:    6.5645613302
  - # 19
    frequency:    6.5683681094
  - # 20
    frequency:    6.7676160406
  - # 21
    frequency:    6.7686174457
  - # 22
    frequency:    6.7707453365
  - # 23
    frequency:    6.7747469110
  - # 24
    frequency:    7.2923027117
  - # 25
    frequency:    7.2934609545
  - # 26
    frequency:    7.2943701144
  - # 27
    frequency:    8.6079275255
  - # 28
    frequency:    8.6091250592
  - # 29
    frequency:    8.9656844967
  - # 30
    frequency:    8.9665006405
  - # 31
    frequency:    8.9702825551
  - # 32
    frequency:    9.1842861720
  - # 33
    frequency:    9.1877168611
  - # 34
    frequency:    9.1905344274
  - # 35
    frequency:    9.4603218839
  - # 36
    frequency:    9.4744293849

- q-position: [    0.0000000,    0.0200000,    0.0200000 ]
  distance:    0.0063736
  band:
  - # 1
    frequency:   -1.3928854219
  - # 2
    frequency:   -1.3867628564
  - # 3
    frequency:   -1.3680095889
  - # 4
    frequency:    2.7316591647
  - # 5
    frequency:    2.7332038428
  - # 6
    frequency:    2.9748874881
  - # 7
    frequency:    2.9791679703
  - # 8
    frequency:    2.9865444643
  - # 9
    frequency:    4.7953819984
  - # 10
    frequency:    4.7958386546
  - # 11
    frequency:    4.8059808151
  - # 12
    frequency:    5.2907986727
  - # 13
    frequency:    5.2968372136
  - # 14
    frequency:    5.2982461471
  - # 15
    frequency:    5.9121576489
  - # 16
    frequency:    5.9246927755
  - # 17
    frequency:    6.5657634814
  - # 18
    frequency:    6.5673076681
  - # 19
    frequency:    6.5831144339
  - # 20
    frequency:    6.7634193498
  - # 21
    frequency:    6.7680817764
  - # 22
    frequency:    6.7710953299
  - # 23
    frequency:    6.7795814493
  - # 24
    frequency:    7.2975434389
  - # 25
    frequency:    7.2988337046
  - # 26
    frequency:    7.3038471918
  - # 27
    frequency:    8.6052423560
  - # 28
    frequency:    8.6064662224
  - # 29
    frequency:    8.9530025432
  - # 30
    frequency:    8.9555115703
  - # 31
    frequency:    8.9698156386
  - # 32
    frequency:    9.1812724167
  - # 33
    frequency:    9.1949473922
  - # 34
    frequency:    9.2045361553
  - # 35
    frequency:    9.4616606246
  - # 36
    frequency:    9.4737693782

- q-position: [    0.0000000,    0.0300000,    0.0300000 ]
  distance:    0.0095603
  band:
  - # 1
    frequency:   -1.3712168998
  - # 2
    frequency:   -1.3576048341
  - # 3
    frequency:   -1.3141711411
  - # 4
    frequency:    2.7388463926
  - # 5
    frequency:    2.7417254325
  - # 6
    frequency:    2.9561324319
  - # 7
    frequency:    2.9655966265
  - # 8
    frequency:    2.9819495880
  - # 9
    frequency:    4.7857110221
  - # 10
    frequency:    4.7868311949
  - # 11
    frequency:    4.8093694798
  - # 12
    frequency:    5.2955510049
  - # 13
    frequency:    5.3092681786
  - # 14
    frequency:    5.3118787699
  - # 15
    frequency:    5.9108781315
  - # 16
    frequency:    5.9388703861
  - # 17
    frequency:    6.5691434617
  - # 18
    frequency:    6.5719068121
  - # 19
    frequency:    6.6073095590
  - # 20
    frequency:    6.7452809031
  - # 21
    frequency:    6.7686830249
  - # 22
    frequency:    6.7753162784
  - # 23
    frequency:    6.7941432972
  - # 24
    frequency:    7.3062689742
  - # 25
    frequency:    7.3077918255
  - # 26
    frequency:    7.3191391222
  - # 27
    frequency:    8.6007112052
  - # 28
    frequency:    8.6021253046
  - # 29
    frequency:    8.9347832118
  - # 30
    frequency:    8.9389476188
  - # 31
    frequency:    8.9689646265
  - # 32
    frequency:    9.1763610035
  - # 33
    frequency:    9.2053376354
  - # 34
    frequency:    9.2246588654
  - # 35
    frequency:    9.4639460419
  - # 36
    frequency:    9.4727415124

- q-position: [    0.0000000,    0.0400000,    0.0400000 ]
  distance:    0.0127471
  band:
  - # 1
    frequency:   -1.3407578418
  - # 2
    frequency:   -1.3167810222
  - # 3
    frequency:   -1.2363476756
  - # 4
    frequency:    2.7486909015
  - # 5
    frequency:    2.7532543716
  - # 6
    frequency:    2.9304098053
  - # 7
    frequency:    2.9470718889
  - # 8
    frequency:    2.9756180215
  - # 9
    frequency:    4.7722746738
  - # 10
    frequency:    4.7742923524
  - # 11
    frequency:    4.8138499958
  - # 12
    frequency:    5.3020917380
  - # 13
    frequency:    5.3258823421
  - # 14
    frequency:    5.3304629344
  - # 15
    frequency:    5.9094205194
  - # 16
    frequency:    5.9587852358
  - # 17
    frequency:    6.5736858255
  - # 18
    frequency:    6.5781219231
  - # 19
    frequency:    6.6402025508
  - # 20
    frequency:    6.7213214561
  - # 21
    frequency:    6.7694598160
  - # 22
    frequency:    6.7812569647
  - # 23
    frequency:    6.8141231044
  - # 24
    frequency:    7.3184759640
  - # 25
    frequency:    7.3205058301
  - # 26
    frequency:    7.3395122796
  - # 27
    frequency:    8.5942945411
  - # 28
    frequency:    8.5961911476
  - # 29
    frequency:    8.9134124375
  - # 30
    frequency:    8.9183831865
  - # 31
    frequency:    8.9676176794
  - # 32
    frequency:    9.1697095663
  - # 33
    frequency:    9.2173576267
  - # 34
    frequency:    9.2481439777
  - # 35
    frequency:    9.4670807203
  - # 36
    frequency:    9.4716717886

- q-position: [    0.0000000,    0.0500000,    0.0500000 ]
  distance:    0.0159339
  band:
  - # 1
    frequency:   -1.3013395477
  - # 2
    frequency:   -1.2642318735
  - # 3
    frequency:   -1.1311555930
  - # 4
    frequency:    2.7610098382
  - # 5
    frequency:    2.7673733054
  - # 6
    frequency:    2.8982200364
  - # 7
    frequency:    2.9240694360
  - # 8
    frequency:    2.9676259794
  - # 9
    frequency:    4.7552001212
  - # 10
    frequency:    4.7582292496
  - # 11
    frequency:    4.8192033042
  - # 12
    frequency:    5.3103262016
  - # 13
    frequency:    5.3460214186
  - # 14
    frequency:    5.3535058037
  - # 15
    frequency:    5.9080888873
  - # 16
    frequency:    5.9844662705
  - # 17
    frequency:    6.5792330360
  - # 18
    frequency:    6.5856856940
  - # 19
    frequency:    6.6773796397
  - # 20
    frequency:    6.6959408612
  - # 21
    frequency:    6.7703792338
  - # 22
    frequency:    6.7890713904
  - # 23
    frequency:    6.8391198913
  - # 24
    frequency:    7.3341750701
  - # 25
    frequency:    7.3371427592
  - # 26
    frequency:    7.3642623884
  - # 27
    frequency:    8.5860063537
  - # 28
    frequency:    8.5887142736
  - # 29
    frequency:    8.8905214867
  - # 30
    frequency:    8.8951634017
  - # 31
    frequency:    8.9656339066
  - # 32
    frequency:    9.1615177317
  - # 33
    frequency:    9.2297507729
  - # 34
    frequency:    9.2727596614
  - # 35
    frequency:    9.4683040523
  - # 36
    frequency:    9.4737117651

- q-position: [    0.0000000,    0.0600000,    0.0600000 ]
  distance:    0.0191207
  band:
  - # 1
    frequency:   -1.2526722922
  - # 2
    frequency:   -1.1997866994
  - # 3
    frequency:   -0.9921041097
  - # 4
    frequency:    2.7755584685
  - # 5
    frequency:    2.7835608073
  - # 6
    frequency:    2.8601737109
  - # 7
    frequency:    2.8971653332
  - # 8
    frequency:    2.9580889498
  - # 9
    frequency:    4.7346026240
  - # 10
    frequency:    4.7386634937
  - # 11
    frequency:    4.8252040419
  - # 12
    frequency:    5.3201301837
  - # 13
    frequency:    5.3689561167
  - # 14
    frequency:    5.3804451983
  - # 15
    frequency:    5.9072243855
  - # 16
    frequency:    6.0159168068
  - # 17
    frequency:    6.5853149764
  - # 18
    frequency:    6.5943200000
  - # 19
    frequency:    6.6568506273
  - # 20
    frequency:    6.7303781754
  - # 21
    frequency:    6.7713913576
  - # 22
    frequency:    6.7996202170
  - # 23
    frequency:    6.8686503524
  - # 24
    frequency:    7.3533893256
  - # 25
    frequency:    7.3579046191
  - # 26
    frequency:    7.3927690897
  - # 27
    frequency:    8.5758888318
  - # 28
    frequency:    8.5797291773
  - # 29
    frequency:    8.8671529264
  - # 30
    frequency:    8.8703283389
  - # 31
    frequency:    8.9628531060
  - # 32
    frequency:    9.1520113381
  - # 33
    frequency:    9.2415914896
  - # 34
    frequency:    9.2966308586
  - # 35
    frequency:    9.4665607890
  - # 36
    frequency:    9.4805082126

- q-position: [    0.0000000,    0.0700000,    0.0700000 ]
  distance:    0.0223074
  band:
  - # 1
    frequency:   -1.1942733556
  - # 2
    frequency:   -1.1230614874
  - # 3
    frequency:   -0.8049133900
  - # 4
    frequency:    2.7919994194
  - # 5
    frequency:    2.8008821446
  - # 6
    frequency:    2.8172780483
  - # 7
    frequency:    2.8670626130
  - # 8
    frequency:    2.9471709566
  - # 9
    frequency:    4.7105958847
  - # 10
    frequency:    4.7156215536
  - # 11
    frequency:    4.8316462212
  - # 12
    frequency:    5.3313531421
  - # 13
    frequency:    5.3939526985
  - # 14
    frequency:    5.4106704945
  - # 15
    frequency:    5.9071907823
  - # 16
    frequency:    6.0530832137
  - # 17
    frequency:    6.5892523920
  - # 18
    frequency:    6.6037335470
  - # 19
    frequency:    6.6233398542
  - # 20
    frequency:    6.7724105995
  - # 21
    frequency:    6.7764051301
  - # 22
    frequency:    6.8183790301
  - # 23
    frequency:    6.9021731728
  - # 24
    frequency:    7.3761351849
  - # 25
    frequency:    7.3830393043
  - # 26
    frequency:    7.4245274352
  - # 27
    frequency:    8.5639850902
  - # 28
    frequency:    8.5692796093
  - # 29
    frequency:    8.8439506428
  - # 30
    frequency:    8.8447166291
  - # 31
    frequency:    8.9591090007
  - # 32
    frequency:    9.1414256078
  - # 33
    frequency:    9.2522126956
  - # 34
    frequency:    9.3180732959
  - # 35
    frequency:    9.4642336499
  - # 36
    frequency:    9.4904282658

- q-position: [    0.0000000,    0.0800000,    0.0800000 ]
  distance:    0.0254942
  band:
  - # 1
    frequency:   -1.1253501625
  - # 2
    frequency:   -1.0332774250
  - # 3
    frequency:   -0.5253645857
  - # 4
    frequency:    2.7687580523
  - # 5
    frequency:    2.8093790769
  - # 6
    frequency:    2.8201185161
  - # 7
    frequency:    2.8351151848
  - # 8
    frequency:    2.9351244330
  - # 9
    frequency:    4.6832975685
  - # 10
    frequency:    4.6891400735
  - # 11
    frequency:    4.8383632160
  - # 12
    frequency:    5.3438187357
  - # 13
    frequency:    5.4203323326
  - # 14
    frequency:    5.4435411461
  - # 15
    frequency:    5.9083648109
  - # 16
    frequency:    6.0958225850
  - # 17
    frequency:    6.5700525536
  - # 18
    frequency:    6.6102135955
  - # 19
    frequency:    6.6136676496
  - # 20
    frequency:    6.7734259809
  - # 21
    frequency:    6.8035023339
  - # 22
    frequency:    6.8623104587
  - # 23
    frequency:    6.9391158340
  - # 24
    frequency:    7.4024059286
  - # 25
    frequency:    7.4128296865
  - # 26
    frequency:    7.4591501804
  - # 27
    frequency:    8.5503355318
  - # 28
    frequency:    8.5574224477
  - # 29
    frequency:    8.8187967626
  - # 30
    frequency:    8.8215593122
  - # 31
    frequency:    8.9542440377
  - # 32
    frequency:    9.1299882266
  - # 33
    frequency:    9.2611250697
  - # 34
    frequency:    9.3356820906
  - # 35
    frequency:    9.4615930405
  - # 36
    frequency:    9.5038800692

- q-position: [    0.0000000,    0.0900000,    0.0900000 ]
  distance:    0.0286810
  band:
  - # 1
    frequency:   -1.0445988417
  - # 2
    frequency:   -0.9289095729
  - # 3
    frequency:    0.3538553289
  - # 4
    frequency:    2.7172672255
  - # 5
    frequency:    2.7979503077
  - # 6
    frequency:    2.8314861040
  - # 7
    frequency:    2.8384389135
  - # 8
    frequency:    2.9224276310
  - # 9
    frequency:    4.6528377244
  - # 10
    frequency:    4.6592750778
  - # 11
    frequency:    4.8452401248
  - # 12
    frequency:    5.3573248877
  - # 13
    frequency:    5.4475174388
  - # 14
    frequency:    5.4784008340
  - # 15
    frequency:    5.9111316274
  - # 16
    frequency:    6.1438727562
  - # 17
    frequency:    6.5292646959
  - # 18
    frequency:    6.6166203921
  - # 19
    frequency:    6.6237484657
  - # 20
    frequency:    6.7743027022
  - # 21
    frequency:    6.8181249501
  - # 22
    frequency:    6.9230224264
  - # 23
    frequency:    6.9788985392
  - # 24
    frequency:    7.4321599194
  - # 25
    frequency:    7.4475416978
  - # 26
    frequency:    7.4963713663
  - # 27
    frequency:    8.5349807609
  - # 28
    frequency:    8.5442284733
  - # 29
    frequency:    8.7933047216
  - # 30
    frequency:    8.8001278734
  - # 31
    frequency:    8.9481250512
  - # 32
    frequency:    9.1179027609
  - # 33
    frequency:    9.2679583626
  - # 34
    frequency:    9.3486590243
  - # 35
    frequency:    9.4586538028
  - # 36
    frequency:    9.5210503957

- q-position: [    0.0000000,    0.1000000,    0.1000000 ]
  distance:    0.0318678
  band:
  - # 1
    frequency:   -0.9498238648
  - # 2
    frequency:   -0.8069128250
  - # 3
    frequency:    0.7410738178
  - # 4
    frequency:    2.6627215178
  - # 5
    frequency:    2.7628274060
  - # 6
    frequency:    2.8515194544
  - # 7
    frequency:    2.8549696375
  - # 8
    frequency:    2.9103668576
  - # 9
    frequency:    4.6193691358
  - # 10
    frequency:    4.6261125427
  - # 11
    frequency:    4.8522185904
  - # 12
    frequency:    5.3716443392
  - # 13
    frequency:    5.4750601070
  - # 14
    frequency:    5.5145888396
  - # 15
    frequency:    5.9158821646
  - # 16
    frequency:    6.1968277393
  - # 17
    frequency:    6.4839439018
  - # 18
    frequency:    6.6257924632
  - # 19
    frequency:    6.6337354803
  - # 20
    frequency:    6.7749718485
  - # 21
    frequency:    6.8304382872
  - # 22
    frequency:    6.9884525718
  - # 23
    frequency:    7.0209532398
  - # 24
    frequency:    7.4653110926
  - # 25
    frequency:    7.4872996902
  - # 26
    frequency:    7.5360861392
  - # 27
    frequency:    8.5179657322
  - # 28
    frequency:    8.5297864096
  - # 29
    frequency:    8.7685915830
  - # 30
    frequency:    8.7800378532
  - # 31
    frequency:    8.9406586726
  - # 32
    frequency:    9.1053333493
  - # 33
    frequency:    9.2724240083
  - # 34
    frequency:    9.3570392795
  - # 35
    frequency:    9.4553672609
  - # 36
    frequency:    9.5414460448

- q-position: [    0.0000000,    0.1100000,    0.1100000 ]
  distance:    0.0350546
  band:
  - # 1
    frequency:   -0.8371202713
  - # 2
    frequency:   -0.6606435552
  - # 3
    frequency:    0.9944328175
  - # 4
    frequency:    2.6059695648
  - # 5
    frequency:    2.7270322473
  - # 6
    frequency:    2.8645868805
  - # 7
    frequency:    2.8727217388
  - # 8
    frequency:    2.9035712115
  - # 9
    frequency:    4.5830783140
  - # 10
    frequency:    4.5897789417
  - # 11
    frequency:    4.8592954115
  - # 12
    frequency:    5.3865266210
  - # 13
    frequency:    5.5026504092
  - # 14
    frequency:    5.5514524928
  - # 15
    frequency:    5.9230071304
  - # 16
    frequency:    6.2541145706
  - # 17
    frequency:    6.4363381747
  - # 18
    frequency:    6.6357797517
  - # 19
    frequency:    6.6433322391
  - # 20
    frequency:    6.7753467183
  - # 21
    frequency:    6.8421345553
  - # 22
    frequency:    7.0550833932
  - # 23
    frequency:    7.0647418809
  - # 24
    frequency:    7.5017214939
  - # 25
    frequency:    7.5318261770
  - # 26
    frequency:    7.5784848283
  - # 27
    frequency:    8.4993452605
  - # 28
    frequency:    8.5142105265
  - # 29
    frequency:    8.7450379876
  - # 30
    frequency:    8.7615236215
  - # 31
    frequency:    8.9318046247
  - # 32
    frequency:    9.0923926255
  - # 33
    frequency:    9.2742926239
  - # 34
    frequency:    9.3615020451
  - # 35
    frequency:    9.4516540384
  - # 36
    frequency:    9.5640320986

- q-position: [    0.0000000,    0.1200000,    0.1200000 ]
  distance:    0.0382413
  band:
  - # 1
    frequency:   -0.6987419771
  - # 2
    frequency:   -0.4719456815
  - # 3
    frequency:    1.1986618703
  - # 4
    frequency:    2.5478283389
  - # 5
    frequency:    2.6919639514
  - # 6
    frequency:    2.8597522073
  - # 7
    frequency:    2.8942579958
  - # 8
    frequency:    2.9092152163
  - # 9
    frequency:    4.5441962364
  - # 10
    frequency:    4.5504508334
  - # 11
    frequency:    4.8665168007
  - # 12
    frequency:    5.4017024061
  - # 13
    frequency:    5.5301064462
  - # 14
    frequency:    5.5883662357
  - # 15
    frequency:    5.9328809771
  - # 16
    frequency:    6.3149207295
  - # 17
    frequency:    6.3871968739
  - # 18
    frequency:    6.6461832775
  - # 19
    frequency:    6.6522703064
  - # 20
    frequency:    6.7753426960
  - # 21
    frequency:    6.8534420721
  - # 22
    frequency:    7.1097141089
  - # 23
    frequency:    7.1211239360
  - # 24
    frequency:    7.5411968375
  - # 25
    frequency:    7.5799708273
  - # 26
    frequency:    7.6243626752
  - # 27
    frequency:    8.4791908782
  - # 28
    frequency:    8.4976511495
  - # 29
    frequency:    8.7229533214
  - # 30
    frequency:    8.7447837329
  - # 31
    frequency:    8.9215846232
  - # 32
    frequency:    9.0791355996
  - # 33
    frequency:    9.2733809911
  - # 34
    frequency:    9.3629500387
  - # 35
    frequency:    9.4474272474
  - # 36
    frequency:    9.5876225627

- q-position: [    0.0000000,    0.1300000,    0.1300000 ]
  distance:    0.0414281
  band:
  - # 1
    frequency:   -0.5153631661
  - # 2
    frequency:   -0.1159633541
  - # 3
    frequency:    1.3728151670
  - # 4
    frequency:    2.4891207404
  - # 5
    frequency:    2.6588014610
  - # 6
    frequency:    2.8458972513
  - # 7
    frequency:    2.9156904318
  - # 8
    frequency:    2.9215124710
  - # 9
    frequency:    4.5030082165
  - # 10
    frequency:    4.5083628662
  - # 11
    frequency:    4.8739700707
  - # 12
    frequency:    5.4168911017
  - # 13
    frequency:    5.5573512501
  - # 14
    frequency:    5.6247631304
  - # 15
    frequency:    5.9458292358
  - # 16
    frequency:    6.3363145441
  - # 17
    frequency:    6.3789104770
  - # 18
    frequency:    6.6569192022
  - # 19
    frequency:    6.6603106611
  - # 20
    frequency:    6.7748843050
  - # 21
    frequency:    6.8643396063
  - # 22
    frequency:    7.1554549987
  - # 23
    frequency:    7.1853374753
  - # 24
    frequency:    7.5834858969
  - # 25
    frequency:    7.6292936903
  - # 26
    frequency:    7.6753775699
  - # 27
    frequency:    8.4575980260
  - # 28
    frequency:    8.4803073078
  - # 29
    frequency:    8.7025768891
  - # 30
    frequency:    8.7299781068
  - # 31
    frequency:    8.9100853156
  - # 32
    frequency:    9.0655618908
  - # 33
    frequency:    9.2695448956
  - # 34
    frequency:    9.3622114059
  - # 35
    frequency:    9.4426131133
  - # 36
    frequency:    9.6111573678

- q-position: [    0.0000000,    0.1400000,    0.1400000 ]
  distance:    0.0446149
  band:
  - # 1
    frequency:   -0.1834192282
  - # 2
    frequency:    0.4339716523
  - # 3
    frequency:    1.5241714551
  - # 4
    frequency:    2.4306775104
  - # 5
    frequency:    2.6289021968
  - # 6
    frequency:    2.8290140849
  - # 7
    frequency:    2.9341334914
  - # 8
    frequency:    2.9366473726
  - # 9
    frequency:    4.4598623386
  - # 10
    frequency:    4.4638138841
  - # 11
    frequency:    4.8817741085
  - # 12
    frequency:    5.4318121456
  - # 13
    frequency:    5.5843827592
  - # 14
    frequency:    5.6601811496
  - # 15
    frequency:    5.9620766371
  - # 16
    frequency:    6.2853044163
  - # 17
    frequency:    6.4434819578
  - # 18
    frequency:    6.6670352350
  - # 19
    frequency:    6.6683881508
  - # 20
    frequency:    6.7739153486
  - # 21
    frequency:    6.8748248385
  - # 22
    frequency:    7.2014910015
  - # 23
    frequency:    7.2471157572
  - # 24
    frequency:    7.6282838225
  - # 25
    frequency:    7.6770772326
  - # 26
    frequency:    7.7329452059
  - # 27
    frequency:    8.4346920346
  - # 28
    frequency:    8.4624410279
  - # 29
    frequency:    8.6840755013
  - # 30
    frequency:    8.7172250819
  - # 31
    frequency:    8.8974557187
  - # 32
    frequency:    9.0516270602
  - # 33
    frequency:    9.2626755480
  - # 34
    frequency:    9.3599413487
  - # 35
    frequency:    9.4371664334
  - # 36
    frequency:    9.6337878157

- q-position: [    0.0000000,    0.1500000,    0.1500000 ]
  distance:    0.0478017
  band:
  - # 1
    frequency:    0.4550331594
  - # 2
    frequency:    0.6164351747
  - # 3
    frequency:    1.6557233639
  - # 4
    frequency:    2.3733340823
  - # 5
    frequency:    2.6039244257
  - # 6
    frequency:    2.8107547782
  - # 7
    frequency:    2.9452936531
  - # 8
    frequency:    2.9566099597
  - # 9
    frequency:    4.4151744939
  - # 10
    frequency:    4.4171723736
  - # 11
    frequency:    4.8900694468
  - # 12
    frequency:    5.4461996729
  - # 13
    frequency:    5.6112419192
  - # 14
    frequency:    5.6943169877
  - # 15
    frequency:    5.9816838777
  - # 16
    frequency:    6.2336421668
  - # 17
    frequency:    6.5074042456
  - # 18
    frequency:    6.6726444266
  - # 19
    frequency:    6.6809200172
  - # 20
    frequency:    6.7724133185
  - # 21
    frequency:    6.8850845101
  - # 22
    frequency:    7.2474206056
  - # 23
    frequency:    7.3062647902
  - # 24
    frequency:    7.6752385199
  - # 25
    frequency:    7.7223153206
  - # 26
    frequency:    7.7962705834
  - # 27
    frequency:    8.4106319235
  - # 28
    frequency:    8.4443935557
  - # 29
    frequency:    8.6675438669
  - # 30
    frequency:    8.7065965355
  - # 31
    frequency:    8.8839022264
  - # 32
    frequency:    9.0372617070
  - # 33
    frequency:    9.2526981717
  - # 34
    frequency:    9.3566303293
  - # 35
    frequency:    9.4310799603
  - # 36
    frequency:    9.6548626491

- q-position: [    0.0000000,    0.1600000,    0.1600000 ]
  distance:    0.0509885
  band:
  - # 1
    frequency:    0.6753631379
  - # 2
    frequency:    0.7479366604
  - # 3
    frequency:    1.7682835638
  - # 4
    frequency:    2.3179237338
  - # 5
    frequency:    2.5859088880
  - # 6
    frequency:    2.7915932192
  - # 7
    frequency:    2.9542625766
  - # 8
    frequency:    2.9752385017
  - # 9
    frequency:    4.3688235577
  - # 10
    frequency:    4.3694869924
  - # 11
    frequency:    4.8990082331
  - # 12
    frequency:    5.4598190388
  - # 13
    frequency:    5.6379813473
  - # 14
    frequency:    5.7270669912
  - # 15
    frequency:    6.0044951496
  - # 16
    frequency:    6.1818145877
  - # 17
    frequency:    6.5667939500
  - # 18
    frequency:    6.6765770189
  - # 19
    frequency:    6.6968095080
  - # 20
    frequency:    6.7704081443
  - # 21
    frequency:    6.8957584058
  - # 22
    frequency:    7.2928668335
  - # 23
    frequency:    7.3628991765
  - # 24
    frequency:    7.7239582161
  - # 25
    frequency:    7.7651422913
  - # 26
    frequency:    7.8630372137
  - # 27
    frequency:    8.3856126982
  - # 28
    frequency:    8.4266048973
  - # 29
    frequency:    8.6530093780
  - # 30
    frequency:    8.6981093278
  - # 31
    frequency:    8.8696861560
  - # 32
    frequency:    9.0223958615
  - # 33
    frequency:    9.2395718647
  - # 34
    frequency:    9.3526408104
  - # 35
    frequency:    9.4243886911
  - # 36
    frequency:    9.6738906453

- q-position: [    0.0000000,    0.1700000,    0.1700000 ]
  distance:    0.0541752
  band:
  - # 1
    frequency:    0.8445706728
  - # 2
    frequency:    0.8514435420
  - # 3
    frequency:    1.8613809584
  - # 4
    frequency:    2.2652661587
  - # 5
    frequency:    2.5772175957
  - # 6
    frequency:    2.7716586076
  - # 7
    frequency:    2.9608007631
  - # 8
    frequency:    2.9921057992
  - # 9
    frequency:    4.3193779332
  - # 10
    frequency:    4.3232600557
  - # 11
    frequency:    4.9087439830
  - # 12
    frequency:    5.4724824774
  - # 13
    frequency:    5.6646334080
  - # 14
    frequency:    5.7585296577
  - # 15
    frequency:    6.0301248203
  - # 16
    frequency:    6.1301702732
  - # 17
    frequency:    6.6150686405
  - # 18
    frequency:    6.6786618187
  - # 19
    frequency:    6.7198511305
  - # 20
    frequency:    6.7680024713
  - # 21
    frequency:    6.9084755421
  - # 22
    frequency:    7.3374738500
  - # 23
    frequency:    7.4172642631
  - # 24
    frequency:    7.7740172098
  - # 25
    frequency:    7.8055137229
  - # 26
    frequency:    7.9308741671
  - # 27
    frequency:    8.3598689680
  - # 28
    frequency:    8.4096391688
  - # 29
    frequency:    8.6404407159
  - # 30
    frequency:    8.6917086419
  - # 31
    frequency:    8.8551292923
  - # 32
    frequency:    9.0069869065
  - # 33
    frequency:    9.2232901716
  - # 34
    frequency:    9.3482416635
  - # 35
    frequency:    9.4171704258
  - # 36
    frequency:    9.6905085427

- q-position: [    0.0000000,    0.1800000,    0.1800000 ]
  distance:    0.0573620
  band:
  - # 1
    frequency:    0.9356465389
  - # 2
    frequency:    0.9891981102
  - # 3
    frequency:    1.9340772094
  - # 4
    frequency:    2.2161504133
  - # 5
    frequency:    2.5800872534
  - # 6
    frequency:    2.7509136344
  - # 7
    frequency:    2.9648710972
  - # 8
    frequency:    3.0068175319
  - # 9
    frequency:    4.2693071192
  - # 10
    frequency:    4.2772290344
  - # 11
    frequency:    4.9194207300
  - # 12
    frequency:    5.4840605713
  - # 13
    frequency:    5.6911708393
  - # 14
    frequency:    5.7889587219
  - # 15
    frequency:    6.0579974434
  - # 16
    frequency:    6.0790873042
  - # 17
    frequency:    6.6463754263
  - # 18
    frequency:    6.6786164984
  - # 19
    frequency:    6.7513502315
  - # 20
    frequency:    6.7653873109
  - # 21
    frequency:    6.9267791030
  - # 22
    frequency:    7.3808993617
  - # 23
    frequency:    7.4695924809
  - # 24
    frequency:    7.8249546524
  - # 25
    frequency:    7.8429775892
  - # 26
    frequency:    7.9976960932
  - # 27
    frequency:    8.3336849890
  - # 28
    frequency:    8.3942193148
  - # 29
    frequency:    8.6297586193
  - # 30
    frequency:    8.6872363362
  - # 31
    frequency:    8.8406318179
  - # 32
    frequency:    8.9910516235
  - # 33
    frequency:    9.2038820027
  - # 34
    frequency:    9.3436338354
  - # 35
    frequency:    9.4095434399
  - # 36
    frequency:    9.7044594501

- q-position: [    0.0000000,    0.1900000,    0.1900000 ]
  distance:    0.0605488
  band:
  - # 1
    frequency:    1.0050844332
  - # 2
    frequency:    1.1187460202
  - # 3
    frequency:    1.9861486386
  - # 4
    frequency:    2.1713116403
  - # 5
    frequency:    2.5956200523
  - # 6
    frequency:    2.7291981885
  - # 7
    frequency:    2.9666055353
  - # 8
    frequency:    3.0190242331
  - # 9
    frequency:    4.2192448955
  - # 10
    frequency:    4.2320875993
  - # 11
    frequency:    4.9311610068
  - # 12
    frequency:    5.4944867773
  - # 13
    frequency:    5.7174393630
  - # 14
    frequency:    5.8186833086
  - # 15
    frequency:    6.0290424662
  - # 16
    frequency:    6.0874288478
  - # 17
    frequency:    6.6639856081
  - # 18
    frequency:    6.6761296300
  - # 19